<?xml version="1.0" encoding="UTF-8"?>

<!-- generated on 2023-06-19 17:24:49 by Eclipse SUMO GUI Version v1_14_1+2245-8aa96d847b0
<configuration xmlns:xsi="http://www.w3.org/2001/XMLSchema-instance" xsi:noNamespaceSchemaLocation="http://sumo.dlr.de/xsd/sumoConfiguration.xsd">

    <input>
        <net-file value="./Net/dqnm.net.xml"/>
        <route-files value="./Rou/dqnrandom.rou.xml, ./Rou/agent.rou.xml"/>
        <additional-files value="./Add/dqn.det.xml"/>
    </input>

    <time>
        <begin value="0"/>
        <end value="10000"/>
    </time>

    <processing>
        <max-depart-delay value="10000"/>
    </processing>

    <traci_server>
        <remote-port value="55231"/>
    </traci_server>

    <gui_only>
        <gui-settings-file value="rl1.settings.xml"/>
    </gui_only>

</configuration>
-->

<detector xmlns:xsi="http://www.w3.org/2001/XMLSchema-instance" xsi:noNamespaceSchemaLocation="http://sumo.dlr.de/xsd/det_e2_file.xsd">
</detector>
