<?xml version="1.0" encoding="UTF-8"?>

<!-- generated on 2023-06-15 11:32:07 by Eclipse SUMO GUI Version v1_14_1+2245-8aa96d847b0
<configuration xmlns:xsi="http://www.w3.org/2001/XMLSchema-instance" xsi:noNamespaceSchemaLocation="http://sumo.dlr.de/xsd/sumoConfiguration.xsd">

    <input>
        <net-file value="simple.net.xml"/>
        <route-files value="simple.rou.xml"/>
    </input>

    <output>
        <tripinfo-output value="tripinfo.xml"/>
    </output>

    <time>
        <begin value="0"/>
        <end value="10000"/>
    </time>

    <traci_server>
        <remote-port value="54577"/>
    </traci_server>

    <gui_only>
        <gui-settings-file value="simple.settings.xml"/>
    </gui_only>

</configuration>
-->

<tripinfos xmlns:xsi="http://www.w3.org/2001/XMLSchema-instance" xsi:noNamespaceSchemaLocation="http://sumo.dlr.de/xsd/tripinfo_file.xsd">
    <tripinfo id="veh0" depart="0.00" departLane="E0_0" departPos="2.10" departSpeed="0.00" departDelay="0.00" arrival="20.00" arrivalLane="E1_0" arrivalPos="52.23" arrivalSpeed="9.70" duration="20.00" routeLength="105.16" waitingTime="0.00" waitingCount="0" stopTime="0.00" timeLoss="12.48" rerouteNo="0" devices="tripinfo_veh0" vType="Car" speedFactor="1.06" vaporized=""/>
    <tripinfo id="veh1" depart="4.00" departLane="E0_0" departPos="5.10" departSpeed="0.00" departDelay="4.00" arrival="22.00" arrivalLane="E1_0" arrivalPos="52.23" arrivalSpeed="12.01" duration="18.00" routeLength="102.16" waitingTime="0.00" waitingCount="0" stopTime="0.00" timeLoss="9.84" rerouteNo="0" devices="tripinfo_veh1" vType="DEFAULT_VEHTYPE" speedFactor="1.06" vaporized=""/>
</tripinfos>
